 Q-Chem 6.1, Q-Chem, Inc., Pleasanton, CA (2022)
 Q-Chem 6.1.0 for Intel X86 EM64T Linux

User input:
--------------------------------------------------------------
$MOLECULE
-1 1
C         -0.78551       -1.08510        0.14605
C         -2.13433       -1.29431        0.03632
C         -3.08107       -0.20819       -0.10992
O         -4.31939       -0.39255       -0.20898
C         -2.47797        1.10862       -0.13253
C         -1.12765        1.29887       -0.02187
C         -0.22967        0.21542        0.12131
C          1.17945        0.47882        0.23259
O          1.73169        1.57158        0.21763
O          1.93758       -0.67600        0.37141
C          3.34736       -0.49677        0.44732
C          3.97835       -0.36063       -0.92971
H         -0.11896       -1.93196        0.25388
H         -2.54182       -2.29937        0.05785
H         -3.15005        1.95307       -0.24127
H         -0.71204        2.29995       -0.04330
H          3.71993       -1.38936        0.95500
H          3.57475        0.38061        1.05526
H          3.74187       -1.22842       -1.54931
H          5.06645       -0.28546       -0.84188
H          3.60719        0.53635       -1.42400
$END

$REM
cis_n_roots 50
method b3lyp
dft_d d4
basis def2-tzvpd
gui 2
scf_convergence 7
$END
--------------------------------------------------------------

             Standard Nuclear Orientation (Angstroms)
    I     Atom           X                Y                Z
 ----------------------------------------------------------------
    1      C      -0.7855109167    -1.0851008234     0.1460481274
    2      C      -2.1343308367    -1.2943112731     0.0363180009
    3      C      -3.0810712997    -0.2081915173    -0.1099208150
    4      O      -4.3193912294    -0.3925519318    -0.2089809231
    5      C      -2.4779718508     1.1086187578    -0.1325294956
    6      C      -1.1276519229     1.2988692071    -0.0218693889
    7      C      -0.2296714612     0.2154194341     0.1213094330
    8      C       1.1794484363     0.4788199073     0.2325896114
    9      O       1.7316879792     1.5715801532     0.2176307028
   10      O       1.9375789275    -0.6759999196     0.3714083689
   11      C       3.3473588577    -0.4967694096     0.4473184603
   12      C       3.9783487095    -0.3606277247    -0.9297114410
   13      H      -0.1189605561    -1.9319606566     0.2538772089
   14      H      -2.5418204158    -2.2993714654     0.0578469904
   15      H      -3.1500522105     1.9530685896    -0.2412685792
   16      H      -0.7120423421     2.2999494027    -0.0432983830
   17      H       3.7199292640    -1.3893597782     0.9549975141
   18      H       3.5747485319     0.3806100577     1.0552593510
   19      H       3.7418690305    -1.2284171837    -1.5493123212
   20      H       5.0664486839    -0.2854573612    -0.8418814357
   21      H       3.6071883023     0.5363526307    -1.4240004904
 ----------------------------------------------------------------

   15    -574.3955952882      6.28e-08  Convergence criterion met
 Total energy in the final basis set =     -574.3955952882

         TDDFT/TDA Excitation Energies
 ---------------------------------------------------

 Excited state   1: excitation energy (eV) =    2.7216
 Total energy for state  1:                  -574.29557801 au
    Multiplicity: Triplet
    Trans. Mom.:  0.0000 X   0.0000 Y   0.0000 Z
    Strength   :     0.0000000000
    D(   44) --> V(    1) amplitude =  0.3499
    D(   44) --> V(    2) amplitude =  0.8614
    D(   44) --> V(    3) amplitude =  0.3452

 Excited state   2: excitation energy (eV) =    3.2689
 Total energy for state  2:                  -574.27546416 au
    Multiplicity: Singlet
    Trans. Mom.: -0.4746 X   0.0011 Y   0.0357 Z
    Strength   :     0.0181395039
    D(   44) --> V(    1) amplitude =  0.9833

 Excited state   3: excitation energy (eV) =    3.2820
 Total energy for state  3:                  -574.27498299 au
    Multiplicity: Triplet
    Trans. Mom.:  0.0000 X   0.0000 Y   0.0000 Z
    Strength   :     0.0000000000
    D(   44) --> V(    1) amplitude =  0.9261
    D(   44) --> V(    2) amplitude = -0.3513

 Excited state   4: excitation energy (eV) =    3.5029
 Total energy for state  4:                  -574.26686457 au
    Multiplicity: Triplet
    Trans. Mom.:  0.0000 X   0.0000 Y   0.0000 Z
    Strength   :     0.0000000000
    D(   44) --> V(    6) amplitude =  0.9690

 Excited state   5: excitation energy (eV) =    3.6147
 Total energy for state  5:                  -574.26275753 au
    Multiplicity: Triplet
    Trans. Mom.:  0.0000 X   0.0000 Y   0.0000 Z
    Strength   :     0.0000000000
    D(   43) --> V(    1) amplitude =  0.3520
    D(   43) --> V(    2) amplitude =  0.8447
    D(   43) --> V(    3) amplitude =  0.3411

 Excited state   6: excitation energy (eV) =    3.8649
 Total energy for state  6:                  -574.25356218 au
    Multiplicity: Singlet
    Trans. Mom.: -0.0860 X  -0.0216 Y  -0.0041 Z
    Strength   :     0.0007462724
    D(   43) --> V(    1) amplitude =  0.4800
    D(   43) --> V(    2) amplitude =  0.7913
    D(   43) --> V(    3) amplitude =  0.3059

 Excited state   7: excitation energy (eV) =    3.8680
 Total energy for state  7:                  -574.25344842 au
    Multiplicity: Singlet
    Trans. Mom.:  0.5304 X   0.1020 Y   0.0216 Z
    Strength   :     0.0276843926
    D(   44) --> V(    2) amplitude = -0.5045
    D(   44) --> V(    3) amplitude =  0.7258
    D(   44) --> V(    4) amplitude = -0.4024

 Excited state   8: excitation energy (eV) =    3.8813
 Total energy for state  8:                  -574.25296037 au
    Multiplicity: Triplet
    Trans. Mom.:  0.0000 X   0.0000 Y   0.0000 Z
    Strength   :     0.0000000000
    D(   44) --> V(    2) amplitude = -0.2848
    D(   44) --> V(    3) amplitude =  0.7599
    D(   44) --> V(    4) amplitude = -0.5458

 Excited state   9: excitation energy (eV) =    3.9707
 Total energy for state  9:                  -574.24967371 au
    Multiplicity: Triplet
    Trans. Mom.:  0.0000 X   0.0000 Y   0.0000 Z
    Strength   :     0.0000000000
    D(   44) --> V(    3) amplitude =  0.5276
    D(   44) --> V(    4) amplitude =  0.7727
    D(   44) --> V(    5) amplitude = -0.2220

 Excited state  10: excitation energy (eV) =    3.9767
 Total energy for state 10:                  -574.24945295 au
    Multiplicity: Singlet
    Trans. Mom.:  0.0586 X   0.0583 Y  -0.1647 Z
    Strength   :     0.0033084220
    D(   44) --> V(    3) amplitude =  0.3778
    D(   44) --> V(    4) amplitude =  0.8607
    D(   44) --> V(    5) amplitude = -0.2195

 Excited state  11: excitation energy (eV) =    4.1408
 Total energy for state 11:                  -574.24342448 au
    Multiplicity: Triplet
    Trans. Mom.:  0.0000 X   0.0000 Y   0.0000 Z
    Strength   :     0.0000000000
    D(   44) --> V(    4) amplitude =  0.2443
    D(   44) --> V(    5) amplitude =  0.9484

 Excited state  12: excitation energy (eV) =    4.1436
 Total energy for state 12:                  -574.24331949 au
    Multiplicity: Singlet
    Trans. Mom.: -0.0478 X  -0.0100 Y   0.0217 Z
    Strength   :     0.0002903737
    D(   44) --> V(    4) amplitude =  0.2322
    D(   44) --> V(    5) amplitude =  0.9541

 Excited state  13: excitation energy (eV) =    4.1527
 Total energy for state 13:                  -574.24298586 au
    Multiplicity: Triplet
    Trans. Mom.:  0.0000 X   0.0000 Y   0.0000 Z
    Strength   :     0.0000000000
    D(   43) --> V(    1) amplitude =  0.9275
    D(   43) --> V(    2) amplitude = -0.3474

 Excited state  14: excitation energy (eV) =    4.1671
 Total energy for state 14:                  -574.24245753 au
    Multiplicity: Singlet
    Trans. Mom.: -0.0077 X  -0.0215 Y   0.0001 Z
    Strength   :     0.0000534475
    D(   43) --> V(    1) amplitude =  0.8643
    D(   43) --> V(    2) amplitude = -0.4724

 Excited state  15: excitation energy (eV) =    4.4229
 Total energy for state 15:                  -574.23305803 au
    Multiplicity: Singlet
    Trans. Mom.: -1.9072 X   0.1051 Y  -0.1412 Z
    Strength   :     0.3974856727
    D(   44) --> V(    2) amplitude =  0.5572
    D(   44) --> V(    3) amplitude =  0.3944
    D(   44) --> V(    6) amplitude =  0.6244

 Excited state  16: excitation energy (eV) =    4.4719
 Total energy for state 16:                  -574.23125723 au
    Multiplicity: Singlet
    Trans. Mom.:  1.5639 X   0.6801 Y   0.0842 Z
    Strength   :     0.3193946902
    D(   44) --> V(    2) amplitude = -0.4855
    D(   44) --> V(    3) amplitude = -0.3556
    D(   44) --> V(    6) amplitude =  0.6929

 Excited state  17: excitation energy (eV) =    4.5189
 Total energy for state 17:                  -574.22952903 au
    Multiplicity: Triplet
    Trans. Mom.:  0.0000 X   0.0000 Y   0.0000 Z
    Strength   :     0.0000000000
    D(   44) --> V(    7) amplitude =  0.9730

 Excited state  18: excitation energy (eV) =    4.5381
 Total energy for state 18:                  -574.22882497 au
    Multiplicity: Singlet
    Trans. Mom.: -0.2865 X  -0.0682 Y  -0.0673 Z
    Strength   :     0.0101453067
    D(   44) --> V(    7) amplitude =  0.9680

 Excited state  19: excitation energy (eV) =    4.5788
 Total energy for state 19:                  -574.22732908 au
    Multiplicity: Triplet
    Trans. Mom.:  0.0000 X   0.0000 Y   0.0000 Z
    Strength   :     0.0000000000
    D(   43) --> V(    6) amplitude =  0.9723

 Excited state  20: excitation energy (eV) =    4.6265
 Total energy for state 20:                  -574.22557487 au
    Multiplicity: Triplet
    Trans. Mom.:  0.0000 X   0.0000 Y   0.0000 Z
    Strength   :     0.0000000000
    D(   42) --> V(    1) amplitude =  0.3489
    D(   42) --> V(    2) amplitude =  0.7969
    D(   42) --> V(    3) amplitude =  0.3393
    D(   42) --> V(    6) amplitude =  0.2426

 Excited state  21: excitation energy (eV) =    4.6549
 Total energy for state 21:                  -574.22453110 au
    Multiplicity: Triplet
    Trans. Mom.:  0.0000 X   0.0000 Y   0.0000 Z
    Strength   :     0.0000000000
    D(   42) --> V(    6) amplitude =  0.8238
    D(   44) --> V(    8) amplitude = -0.4068

 Excited state  22: excitation energy (eV) =    4.6620
 Total energy for state 22:                  -574.22427091 au
    Multiplicity: Triplet
    Trans. Mom.:  0.0000 X   0.0000 Y   0.0000 Z
    Strength   :     0.0000000000
    D(   42) --> V(    6) amplitude =  0.3661
    D(   44) --> V(    8) amplitude =  0.8801

 Excited state  23: excitation energy (eV) =    4.6721
 Total energy for state 23:                  -574.22389704 au
    Multiplicity: Singlet
    Trans. Mom.:  0.0088 X  -0.0495 Y  -0.0040 Z
    Strength   :     0.0002915788
    D(   44) --> V(    8) amplitude =  0.9749

 Excited state  24: excitation energy (eV) =    4.6945
 Total energy for state 24:                  -574.22307611 au
    Multiplicity: Triplet
    Trans. Mom.:  0.0000 X   0.0000 Y   0.0000 Z
    Strength   :     0.0000000000
    D(   43) --> V(    3) amplitude = -0.4797
    D(   43) --> V(    4) amplitude =  0.7635
    D(   43) --> V(    7) amplitude =  0.3157

 Excited state  25: excitation energy (eV) =    4.7130
 Total energy for state 25:                  -574.22239727 au
    Multiplicity: Singlet
    Trans. Mom.:  0.0054 X   0.1596 Y   0.0461 Z
    Strength   :     0.0031912713
    D(   43) --> V(    3) amplitude =  0.5174
    D(   43) --> V(    6) amplitude =  0.7914

 Excited state  26: excitation energy (eV) =    4.7350
 Total energy for state 26:                  -574.22158787 au
    Multiplicity: Singlet
    Trans. Mom.: -0.0079 X  -0.3406 Y   0.0495 Z
    Strength   :     0.0137472775
    D(   43) --> V(    3) amplitude = -0.3794
    D(   43) --> V(    4) amplitude =  0.6836
    D(   43) --> V(    6) amplitude =  0.5096
    D(   43) --> V(    7) amplitude =  0.2282

 Excited state  27: excitation energy (eV) =    4.8118
 Total energy for state 27:                  -574.21876323 au
    Multiplicity: Triplet
    Trans. Mom.:  0.0000 X   0.0000 Y   0.0000 Z
    Strength   :     0.0000000000
    D(   43) --> V(    2) amplitude = -0.3072
    D(   43) --> V(    3) amplitude =  0.7765
    D(   43) --> V(    4) amplitude =  0.4473

 Excited state  28: excitation energy (eV) =    4.8274
 Total energy for state 28:                  -574.21819225 au
    Multiplicity: Singlet
    Trans. Mom.:  0.0628 X  -0.2354 Y   0.0029 Z
    Strength   :     0.0070201981
    D(   43) --> V(    2) amplitude = -0.2536
    D(   43) --> V(    3) amplitude =  0.6807
    D(   43) --> V(    4) amplitude =  0.5385
    D(   43) --> V(    6) amplitude = -0.3037

 Excited state  29: excitation energy (eV) =    4.9948
 Total energy for state 29:                  -574.21204138 au
    Multiplicity: Triplet
    Trans. Mom.:  0.0000 X   0.0000 Y   0.0000 Z
    Strength   :     0.0000000000
    D(   43) --> V(    4) amplitude =  0.2946
    D(   43) --> V(    5) amplitude =  0.8959
    D(   43) --> V(    8) amplitude = -0.2596

 Excited state  30: excitation energy (eV) =    5.0009
 Total energy for state 30:                  -574.21181396 au
    Multiplicity: Triplet
    Trans. Mom.:  0.0000 X   0.0000 Y   0.0000 Z
    Strength   :     0.0000000000
    D(   44) --> V(    9) amplitude =  0.7329
    D(   44) --> V(   10) amplitude =  0.6009
    D(   44) --> V(   11) amplitude =  0.2258

 Excited state  31: excitation energy (eV) =    5.0052
 Total energy for state 31:                  -574.21165708 au
    Multiplicity: Singlet
    Trans. Mom.: -0.2722 X   0.0479 Y  -0.0296 Z
    Strength   :     0.0094713880
    D(   43) --> V(    4) amplitude =  0.2694
    D(   43) --> V(    5) amplitude =  0.9154
    D(   43) --> V(    8) amplitude = -0.2286

 Excited state  32: excitation energy (eV) =    5.0275
 Total energy for state 32:                  -574.21083684 au
    Multiplicity: Singlet
    Trans. Mom.: -0.0792 X  -0.0042 Y   0.1596 Z
    Strength   :     0.0039140837
    D(   44) --> V(    9) amplitude =  0.7779
    D(   44) --> V(   10) amplitude =  0.5754

 Excited state  33: excitation energy (eV) =    5.0931
 Total energy for state 33:                  -574.20842734 au
    Multiplicity: Singlet
    Trans. Mom.:  0.0271 X   0.1472 Y   0.0246 Z
    Strength   :     0.0028712905
    D(   42) --> V(    1) amplitude =  0.9845

 Excited state  34: excitation energy (eV) =    5.0991
 Total energy for state 34:                  -574.20820569 au
    Multiplicity: Triplet
    Trans. Mom.:  0.0000 X   0.0000 Y   0.0000 Z
    Strength   :     0.0000000000
    D(   44) --> V(    9) amplitude = -0.5044
    D(   44) --> V(   10) amplitude =  0.7083
    D(   44) --> V(   14) amplitude =  0.3330

 Excited state  35: excitation energy (eV) =    5.1291
 Total energy for state 35:                  -574.20710453 au
    Multiplicity: Triplet
    Trans. Mom.:  0.0000 X   0.0000 Y   0.0000 Z
    Strength   :     0.0000000000
    D(   42) --> V(    1) amplitude =  0.9125
    D(   42) --> V(    2) amplitude = -0.3593

 Excited state  36: excitation energy (eV) =    5.1489
 Total energy for state 36:                  -574.20637579 au
    Multiplicity: Singlet
    Trans. Mom.:  0.3894 X   0.0746 Y  -0.0013 Z
    Strength   :     0.0198343853
    D(   44) --> V(    9) amplitude = -0.5929
    D(   44) --> V(   10) amplitude =  0.7368
    D(   44) --> V(   11) amplitude =  0.2584

 Excited state  37: excitation energy (eV) =    5.1597
 Total energy for state 37:                  -574.20597888 au
    Multiplicity: Triplet
    Trans. Mom.:  0.0000 X   0.0000 Y   0.0000 Z
    Strength   :     0.0000000000
    D(   41) --> V(    1) amplitude =  0.2570
    D(   41) --> V(    2) amplitude =  0.5825
    D(   41) --> V(    3) amplitude =  0.2469
    D(   44) --> V(    9) amplitude =  0.2725
    D(   44) --> V(   11) amplitude = -0.4863
    D(   44) --> V(   14) amplitude =  0.2869

 Excited state  38: excitation energy (eV) =    5.1636
 Total energy for state 38:                  -574.20583688 au
    Multiplicity: Triplet
    Trans. Mom.:  0.0000 X   0.0000 Y   0.0000 Z
    Strength   :     0.0000000000
    D(   41) --> V(    1) amplitude =  0.2589
    D(   41) --> V(    2) amplitude =  0.5902
    D(   41) --> V(    3) amplitude =  0.2481
    D(   44) --> V(    9) amplitude = -0.2931
    D(   44) --> V(   11) amplitude =  0.4586
    D(   44) --> V(   14) amplitude = -0.2894

 Excited state  39: excitation energy (eV) =    5.2107
 Total energy for state 39:                  -574.20410453 au
    Multiplicity: Triplet
    Trans. Mom.:  0.0000 X   0.0000 Y   0.0000 Z
    Strength   :     0.0000000000
    D(   43) --> V(    4) amplitude = -0.3167
    D(   43) --> V(    7) amplitude =  0.8320
    D(   43) --> V(    9) amplitude =  0.3322

 Excited state  40: excitation energy (eV) =    5.2444
 Total energy for state 40:                  -574.20286719 au
    Multiplicity: Singlet
    Trans. Mom.:  0.0327 X  -0.4234 Y   0.0272 Z
    Strength   :     0.0232640323
    D(   43) --> V(    4) amplitude = -0.2754
    D(   43) --> V(    7) amplitude =  0.8607
    D(   43) --> V(    9) amplitude =  0.3120

 Excited state  41: excitation energy (eV) =    5.3000
 Total energy for state 41:                  -574.20082272 au
    Multiplicity: Singlet
    Trans. Mom.: -0.4262 X  -0.0889 Y  -0.0587 Z
    Strength   :     0.0250549336
    D(   44) --> V(   10) amplitude = -0.2995
    D(   44) --> V(   11) amplitude =  0.9219

 Excited state  42: excitation energy (eV) =    5.3394
 Total energy for state 42:                  -574.19937441 au
    Multiplicity: Triplet
    Trans. Mom.:  0.0000 X   0.0000 Y   0.0000 Z
    Strength   :     0.0000000000
    D(   40) --> V(    2) amplitude = -0.2252
    D(   44) --> V(   10) amplitude = -0.2715
    D(   44) --> V(   11) amplitude =  0.6546
    D(   44) --> V(   14) amplitude =  0.4410
    D(   44) --> V(   15) amplitude =  0.2393
    D(   44) --> V(   19) amplitude = -0.2726

 Excited state  43: excitation energy (eV) =    5.4348
 Total energy for state 43:                  -574.19587116 au
    Multiplicity: Triplet
    Trans. Mom.:  0.0000 X   0.0000 Y   0.0000 Z
    Strength   :     0.0000000000
    D(   43) --> V(    5) amplitude =  0.2821
    D(   43) --> V(    8) amplitude =  0.9119

 Excited state  44: excitation energy (eV) =    5.4476
 Total energy for state 44:                  -574.19539887 au
    Multiplicity: Singlet
    Trans. Mom.: -0.0715 X   0.6115 Y  -0.0875 Z
    Strength   :     0.0516183356
    D(   42) --> V(    2) amplitude =  0.9241

 Excited state  45: excitation energy (eV) =    5.4718
 Total energy for state 45:                  -574.19451116 au
    Multiplicity: Singlet
    Trans. Mom.: -0.0031 X  -0.0409 Y  -0.0074 Z
    Strength   :     0.0002330144
    D(   41) --> V(    1) amplitude =  0.5224
    D(   41) --> V(    2) amplitude =  0.7403
    D(   41) --> V(    3) amplitude =  0.2863

 Excited state  46: excitation energy (eV) =    5.4927
 Total energy for state 46:                  -574.19374095 au
    Multiplicity: Singlet
    Trans. Mom.: -0.0019 X  -0.0471 Y   0.0048 Z
    Strength   :     0.0003025923
    D(   43) --> V(    5) amplitude =  0.2431
    D(   43) --> V(    8) amplitude =  0.9253

 Excited state  47: excitation energy (eV) =    5.4943

 Excited state 100: excitation energy (eV) =    6.7952

                    Orbital Energies (a.u.)
 --------------------------------------------------------------

 Alpha MOs
 -- Occupied --
-19.0324 -18.9653 -18.9088 -10.1532 -10.1168 -10.0679 -10.0670 -10.0320
-10.0300 -10.0208 -10.0091 -10.0088  -0.9611  -0.8717  -0.8281  -0.6968
 -0.6603  -0.5974  -0.5897  -0.5352  -0.4614  -0.4536  -0.4225  -0.3959
 -0.3602  -0.3399  -0.3342  -0.3067  -0.3008  -0.2951  -0.2816  -0.2723
 -0.2710  -0.2563  -0.2319  -0.2242  -0.2199  -0.1951  -0.1756  -0.1649
 -0.1429  -0.1123  -0.0724  -0.0445

          Ground-State Mulliken Net Atomic Charges

     Atom                 Charge (a.u.)
  ----------------------------------------
      1 C                     0.002784
      2 C                    -0.704022
      3 C                     0.051356
      4 O                    -0.763378
      5 C                    -0.500008
      6 C                    -0.310457
      7 C                     0.220731
      8 C                     0.489844
      9 O                    -0.693993
     10 O                    -0.343035
     11 C                    -0.013227
     12 C                    -1.115893
     13 H                     0.312811
     14 H                     0.329651
     15 H                     0.336723
     16 H                     0.339647
     17 H                     0.246036
     18 H                     0.243229
     19 H                     0.247131
     20 H                     0.305854
     21 H                     0.318214
  ----------------------------------------
  Sum of atomic charges =    -1.000000

                    Cartesian Multipole Moments
 -----------------------------------------------------------------
    Charge (ESU x 10^10)
                -4.8032
    Dipole Moment (Debye)
         X       9.2657      Y      -1.1260      Z       0.1976
       Tot       9.3360
    Quadrupole Moments (Debye-Ang)
        XX    -127.6665     XY      -9.1089     YY     -80.2525
        XZ      -2.0135     YZ      -0.8674     ZZ     -75.9896

 Total job time:  17186.81s(wall), 101022.25s(cpu)
        *  Thank you very much for using Q-Chem.  Have a nice day.  *
